 Q-Chem 5.2 (devel), Q-Chem, Inc., Pleasanton, CA (2019)
 Q-Chem 5.2.0 for Intel X86 EM64T Linux

User input:
--------------------------------------------------------------
$molecule
0 1
C      -2.96180822     -0.25712040      1.42623170
C      -1.88351694     -1.13291535      1.28169409
C      -1.08592209     -1.08715017      0.13884753
C      -1.38711861     -0.12401224     -0.83336856
C      -2.44127071      0.77616995     -0.69624461
C      -3.24011452      0.69587721      0.44177384
H      -3.59587975     -0.31817375      2.31605900
H      -1.70726755     -1.94548558      2.03698825
H      -0.27028527     -1.78967641      0.01364881
H      -2.64714319      1.49519921     -1.48568451
H      -4.08847763      1.37623427      0.56368621
C       1.89859822      1.15852700      1.25743720
C       2.87399488      0.18744164      1.45925147
C       3.23212568     -0.70494945      0.44869228
C       2.48327168     -0.73126175     -0.70871418
C       1.39618641      0.11880420     -0.87201498
C       1.12937847      1.10827533      0.08495553
H       1.70304273      1.91454724      2.02626612
H       3.77529798      0.31230076      2.37686113
H       4.07191034     -1.39663073      0.60813550
H       2.74840782     -1.43689099     -1.48900909
H       0.33716687      1.83260934     -0.06679534
N      -0.61645913     -0.04414272     -2.06016289
N       0.58116048      0.03403919     -2.07094830
$end

!QSYS wt = 12h
$rem
method camb3lyp
basis 6-311G*
dft_d d3_bj
cis_n_roots 20
cis_singlets true
cis_triplets false
mem_total 80000
threads 8
sts_mom true
$end
--------------------------------------------------------------

             Standard Nuclear Orientation (Angstroms)
    I     Atom           X                Y                Z
 ----------------------------------------------------------------
    1      C      -2.9587035834    -1.4444991270    -0.2922135944
    2      C      -1.8632582792    -1.3145683422    -1.1487984275
    3      C      -1.0660425485    -0.1713442382    -1.1059500561
    4      C      -1.3856039952     0.8165438779    -0.1649316219
    5      C      -2.4573915418     0.6944172229     0.7163879216
    6      C      -3.2551719404    -0.4445426056     0.6389199019
    7      H      -3.5919758784    -2.3350317198    -0.3512452994
    8      H      -1.6714612029    -2.0830719704    -1.9453030096
    9      H      -0.2366303754    -0.0578503111    -1.7941911731
   10      H      -2.6769402161     1.4955434051     1.4182405630
   11      H      -4.1168647090    -0.5551035391     1.3042996235
   12      C       1.8729276279    -1.2539452032     1.2161394630
   13      C       2.8671724809    -1.4718473943     0.2679146860
   14      C       3.2434396471    -0.4760852348    -0.6336007854
   15      C       2.4959384204     0.6809414286    -0.6935639428
   16      C       1.3923913690     0.8583905043     0.1321051106
   17      C       1.1055458667    -0.0822305134     1.1315969364
   18      H       1.6620381525    -2.0102792938     1.9805940619
   19      H       3.7652914208    -2.3875423065     0.4254893150
   20      H       4.0966118519    -0.6470248940    -1.3058806606
   21      H       2.7754076622     1.4495434812    -1.4064578840
   22      H       0.2992886914     0.0815378016     1.8375832040
   23      N      -0.6159413315     2.0442685233    -0.0898910893
   24      N       0.5799089689     2.0560024905     0.0117250481
 ----------------------------------------------------------------

   15    -572.5299495109      7.90e-09  Convergence criterion met
 Total energy in the final basis set =     -572.5299495109

         TDDFT/TDA Excitation Energies
 ---------------------------------------------------

 Excited state   1: excitation energy (eV) =    2.8482
 Total energy for state  1:                  -572.42527826 au
    Multiplicity: Singlet
    Trans. Mom.:  0.4646 X  -0.0259 Y   0.2735 Z
    Strength   :     0.0203322221
    D( 45) --> V(  1) amplitude =  0.2207
    D( 47) --> V(  1) amplitude =  0.2237
    D( 48) --> V(  1) amplitude =  0.8973
    D( 48) --> V(  5) amplitude =  0.2158

 Excited state   2: excitation energy (eV) =    4.8474
 Total energy for state  2:                  -572.35181251 au
    Multiplicity: Singlet
    Trans. Mom.: -0.7832 X  -0.0058 Y  -0.0116 Z
    Strength   :     0.0728627263
    D( 47) --> V(  1) amplitude =  0.6613
    D( 48) --> V(  1) amplitude = -0.2457
    D( 48) --> V(  2) amplitude = -0.6197

 Excited state   3: excitation energy (eV) =    5.0677
 Total energy for state  3:                  -572.34371539 au
    Multiplicity: Singlet
    Trans. Mom.: -0.4293 X   0.2404 Y  -0.1498 Z
    Strength   :     0.0328440752
    D( 44) --> V(  1) amplitude =  0.3155
    D( 45) --> V(  1) amplitude =  0.3397
    D( 47) --> V(  1) amplitude =  0.2475
    D( 48) --> V(  2) amplitude =  0.2596
    D( 48) --> V(  3) amplitude =  0.6739

 Excited state   4: excitation energy (eV) =    5.1018
 Total energy for state  4:                  -572.34246067 au
    Multiplicity: Singlet
    Trans. Mom.: -0.6449 X  -0.1756 Y  -0.2443 Z
    Strength   :     0.0632906849
    D( 44) --> V(  1) amplitude = -0.2435
    D( 45) --> V(  1) amplitude =  0.3776
    D( 46) --> V(  1) amplitude =  0.2780
    D( 47) --> V(  1) amplitude =  0.4027
    D( 48) --> V(  2) amplitude =  0.4915
    D( 48) --> V(  3) amplitude = -0.3408

 Excited state   5: excitation energy (eV) =    5.2587
 Total energy for state  5:                  -572.33669672 au
    Multiplicity: Singlet
    Trans. Mom.:  0.1331 X  -0.0845 Y   0.0899 Z
    Strength   :     0.0042419212
    D( 45) --> V(  1) amplitude = -0.2462
    D( 46) --> V(  1) amplitude =  0.7213
    D( 48) --> V(  3) amplitude =  0.3161
    D( 48) --> V(  4) amplitude = -0.3765

 Excited state   6: excitation energy (eV) =    5.4789
 Total energy for state  6:                  -572.32860192 au
    Multiplicity: Singlet
    Trans. Mom.:  0.0641 X  -0.7799 Y   0.0356 Z
    Strength   :     0.0823677839
    D( 44) --> V(  1) amplitude =  0.3809
    D( 45) --> V(  3) amplitude = -0.2342
    D( 46) --> V(  1) amplitude =  0.3813
    D( 48) --> V(  3) amplitude = -0.4025
    D( 48) --> V(  4) amplitude =  0.5865

 Excited state   7: excitation energy (eV) =    5.5600
 Total energy for state  7:                  -572.32562277 au
    Multiplicity: Singlet
    Trans. Mom.: -0.9581 X   0.0500 Y   0.3968 Z
    Strength   :     0.1468437916
    D( 45) --> V(  1) amplitude =  0.5250
    D( 45) --> V(  2) amplitude = -0.2400
    D( 47) --> V(  1) amplitude = -0.3966
    D( 47) --> V(  2) amplitude = -0.2918
    D( 48) --> V(  2) amplitude = -0.4552
    D( 48) --> V(  5) amplitude =  0.2491

 Excited state   8: excitation energy (eV) =    5.8253
 Total energy for state  8:                  -572.31587531 au
    Multiplicity: Singlet
    Trans. Mom.: -0.1540 X  -0.2616 Y   0.0609 Z
    Strength   :     0.0136847004
    D( 44) --> V(  1) amplitude =  0.5975
    D( 47) --> V(  4) amplitude = -0.2184
    D( 48) --> V(  3) amplitude = -0.2889
    D( 48) --> V(  4) amplitude = -0.5588

 Excited state   9: excitation energy (eV) =    5.9134
 Total energy for state  9:                  -572.31263440 au
    Multiplicity: Singlet
    Trans. Mom.: -0.0934 X   0.0242 Y  -0.1059 Z
    Strength   :     0.0029722176
    D( 45) --> V(  1) amplitude = -0.3704
    D( 48) --> V(  5) amplitude =  0.7673
    D( 48) --> V(  6) amplitude =  0.3570

 Excited state  10: excitation energy (eV) =    6.2688
 Total energy for state 10:                  -572.29957522 au
    Multiplicity: Singlet
    Trans. Mom.: -0.3881 X   0.1753 Y   0.3267 Z
    Strength   :     0.0442468384
    D( 44) --> V(  1) amplitude = -0.2181
    D( 44) --> V(  4) amplitude = -0.2258
    D( 45) --> V(  1) amplitude =  0.3086
    D( 45) --> V(  2) amplitude =  0.2744
    D( 46) --> V(  1) amplitude =  0.2310
    D( 46) --> V(  3) amplitude = -0.4513
    D( 47) --> V(  1) amplitude = -0.2375
    D( 47) --> V(  2) amplitude =  0.4658

 Excited state  11: excitation energy (eV) =    6.3749
 Total energy for state 11:                  -572.29567458 au
    Multiplicity: Singlet
    Trans. Mom.: -0.1517 X  -0.2277 Y   0.0907 Z
    Strength   :     0.0129788655
    D( 44) --> V(  1) amplitude =  0.3473
    D( 45) --> V(  1) amplitude =  0.2291
    D( 45) --> V(  3) amplitude =  0.3237
    D( 46) --> V(  2) amplitude = -0.3307
    D( 47) --> V(  3) amplitude = -0.4090
    D( 47) --> V(  4) amplitude =  0.4170

 Excited state  12: excitation energy (eV) =    6.5281
 Total energy for state 12:                  -572.29004458 au
    Multiplicity: Singlet
    Trans. Mom.: -0.0480 X   0.0008 Y   0.0000 Z
    Strength   :     0.0003692141
    D( 44) --> V(  2) amplitude = -0.2738
    D( 45) --> V(  3) amplitude =  0.4585
    D( 45) --> V(  4) amplitude = -0.2497
    D( 46) --> V(  2) amplitude =  0.2260
    D( 47) --> V(  3) amplitude =  0.6462

 Excited state  13: excitation energy (eV) =    6.7116
 Total energy for state 13:                  -572.28330354 au
    Multiplicity: Singlet
    Trans. Mom.:  0.1025 X  -0.0277 Y   0.0333 Z
    Strength   :     0.0020347228
    D( 48) --> V(  5) amplitude = -0.3619
    D( 48) --> V(  6) amplitude =  0.7696

 Excited state  14: excitation energy (eV) =    6.7161
 Total energy for state 14:                  -572.28313919 au
    Multiplicity: Singlet
    Trans. Mom.: -1.1130 X  -0.0245 Y  -0.0886 Z
    Strength   :     0.2052322037
    D( 44) --> V(  3) amplitude = -0.3714
    D( 45) --> V(  2) amplitude = -0.4045
    D( 46) --> V(  4) amplitude =  0.3543
    D( 47) --> V(  2) amplitude =  0.5508

 Excited state  15: excitation energy (eV) =    6.9938
 Total energy for state 15:                  -572.27293244 au
    Multiplicity: Singlet
    Trans. Mom.: -1.2537 X   0.0127 Y   0.0754 Z
    Strength   :     0.2702997152
    D( 44) --> V(  3) amplitude =  0.3177
    D( 45) --> V(  2) amplitude =  0.3265
    D( 46) --> V(  3) amplitude =  0.6537
    D( 47) --> V(  2) amplitude =  0.4724

 Excited state  16: excitation energy (eV) =    7.1159
 Total energy for state 16:                  -572.26844442 au
    Multiplicity: Singlet
    Trans. Mom.:  0.1060 X  -0.1493 Y   0.0149 Z
    Strength   :     0.0058845186
    D( 46) --> V(  2) amplitude = -0.2205
    D( 47) --> V(  4) amplitude = -0.2575
    D( 48) --> V(  7) amplitude =  0.7532

 Excited state  17: excitation energy (eV) =    7.2019
 Total energy for state 17:                  -572.26528524 au
    Multiplicity: Singlet
    Trans. Mom.:  0.0764 X  -0.3738 Y   0.0072 Z
    Strength   :     0.0256971489
    D( 44) --> V(  2) amplitude =  0.6873
    D( 45) --> V(  4) amplitude =  0.3018
    D( 46) --> V(  5) amplitude =  0.2319
    D( 47) --> V(  3) amplitude =  0.3083
    D( 47) --> V(  4) amplitude =  0.2734

 Excited state  18: excitation energy (eV) =    7.2400
 Total energy for state 18:                  -572.26388336 au
    Multiplicity: Singlet
    Trans. Mom.:  0.1136 X   0.6191 Y  -0.0018 Z
    Strength   :     0.0702840304
    D( 46) --> V(  2) amplitude =  0.6292
    D( 47) --> V(  3) amplitude = -0.3009
    D( 47) --> V(  4) amplitude =  0.2842
    D( 48) --> V(  7) amplitude =  0.3272

 Excited state  19: excitation energy (eV) =    7.3238
 Total energy for state 19:                  -572.26080376 au
    Multiplicity: Singlet
    Trans. Mom.:  0.1487 X   0.0868 Y   0.1448 Z
    Strength   :     0.0090795072
    D( 44) --> V(  3) amplitude = -0.2397
    D( 45) --> V(  2) amplitude =  0.4944
    D( 45) --> V(  3) amplitude = -0.3627
    D( 46) --> V(  4) amplitude =  0.3703
    D( 47) --> V(  4) amplitude =  0.2789

 Excited state  20: excitation energy (eV) =    7.3702
 Total energy for state  20:                  -572.25909997 au
 Multiplicity: Singlet
    Trans. Mom.:  0.2357 X  -0.2812 Y   0.1826 Z
    Strength   :     0.0303278245
    D( 44) --> V(  3) amplitude = -0.2772
    D( 45) --> V(  2) amplitude =  0.2954
    D( 45) --> V(  3) amplitude =  0.3744
    D( 46) --> V(  2) amplitude =  0.2558
    D( 46) --> V(  4) amplitude =  0.4300
    D( 47) --> V(  4) amplitude = -0.3250

 ---------------------------------------------------

                    Orbital Energies (a.u.)
 --------------------------------------------------------------

 Alpha MOs
 -- Occupied --
-14.4406 -14.4399 -10.2902 -10.2877 -10.2730 -10.2630 -10.2626 -10.2620
-10.2608 -10.2603 -10.2602 -10.2590 -10.2582 -10.2579  -1.1477  -0.9610
 -0.9537  -0.8725  -0.8447  -0.8426  -0.8417  -0.7529  -0.7050  -0.6979
 -0.6962  -0.6499  -0.6278  -0.5748  -0.5533  -0.5509  -0.5458  -0.5251
 -0.5169  -0.5076  -0.5059  -0.4901  -0.4718  -0.4454  -0.4388  -0.4387
 -0.4203  -0.4199  -0.4121  -0.3311  -0.3262  -0.3194  -0.3124  -0.2671

          Ground-State Mulliken Net Atomic Charges

     Atom                 Charge (a.u.)
  ----------------------------------------
      1 C                    -0.200454
      2 C                    -0.186959
      3 C                    -0.161856
      4 C                    -0.011985
      5 C                    -0.174016
      6 C                    -0.199978
      7 H                     0.205142
      8 H                     0.199383
      9 H                     0.234408
     10 H                     0.218658
     11 H                     0.207953
     12 C                    -0.181428
     13 C                    -0.180897
     14 C                    -0.186063
     15 C                    -0.180258
     16 C                    -0.006132
     17 C                    -0.165505
     18 H                     0.211628
     19 H                     0.153497
     20 H                     0.209942
     21 H                     0.215894
     22 H                     0.231148
     23 N                    -0.124235
     24 N                    -0.127887
  ----------------------------------------
  Sum of atomic charges =     0.000000

                    Cartesian Multipole Moments
 -----------------------------------------------------------------
    Charge (ESU x 10^10)
                 0.0000
    Dipole Moment (Debye)
         X      -0.0588      Y      -3.1011      Z       0.1015
       Tot       3.1034
    Quadrupole Moments (Debye-Ang)
        XX     -74.4480     XY       0.6404     YY     -87.5152
        XZ      -6.4461     YZ       0.3116     ZZ     -77.2731

 Total job time:  132.27s(wall), 1035.59s(cpu)
        *  Thank you very much for using Q-Chem.  Have a nice day.  *
